ITEM: TIMESTEP
250000
ITEM: NUMBER OF ATOMS
108
ITEM: BOX BOUNDS pp pp pp
4.87723 20.1228
4.87723 20.1228
4.87723 20.1228
ITEM: ATOMS id type xs ys zs
1 1 0.841803 0.0650185 0.189534
2 1 0.251963 0.732418 0.282195
3 1 0.667554 0.198846 0.0820976
4 1 0.311975 0.9166 0.156378
5 1 0.661916 0.564206 0.375795
6 1 0.974601 0.993507 0.367653
7 1 0.441695 0.8035 0.769016
8 1 0.866302 0.283664 0.0898524
9 1 0.192159 0.17881 0.664065
10 1 0.836877 0.713279 0.0535898
11 1 0.518097 0.142244 0.254196
12 1 0.510171 0.422657 0.768005
13 1 0.53886 0.184601 0.687957
14 1 0.333532 0.977549 0.924339
15 1 0.867409 0.129913 0.486256
16 1 0.305828 0.30064 0.212065
17 1 0.510714 0.698973 0.570556
18 1 0.235337 0.776662 0.674849
19 1 0.796548 0.412133 0.473005
20 1 0.684797 0.69595 0.678211
21 1 0.492079 0.476859 0.980029
22 1 0.0974758 0.828662 0.172702
23 1 0.954519 0.503088 0.032409
24 1 0.718314 0.000356882 0.546387
25 1 0.0534742 0.799893 0.709776
26 1 0.631484 0.255094 0.893364
27 1 0.386686 0.486042 0.519472
28 1 0.716705 0.132732 0.355293
29 1 0.977555 0.0486512 0.654994
30 1 0.557324 0.505683 0.217579
31 1 0.187258 0.536324 0.636388
32 1 0.838385 0.363571 0.889382
33 1 0.429189 0.0976978 0.0832675
34 1 0.119874 0.340955 0.322069
35 1 0.0334927 0.167429 0.0347575
36 1 0.503219 0.790213 0.190327
37 1 0.981033 0.910076 0.879275
38 1 0.151902 0.528814 0.388037
39 1 0.357151 0.0943667 0.733193
40 1 0.950071 0.47646 0.323274
41 1 0.180614 0.948701 0.338253
42 1 0.695065 0.747674 0.274029
43 1 0.516175 0.874584 0.374541
44 1 0.343141 0.499724 0.263326
45 1 0.376478 0.61213 0.698543
46 1 0.558474 0.630947 0.840908
47 1 0.826769 0.642456 0.420066
48 1 0.199574 0.359957 0.522581
49 1 0.486888 0.942266 0.586767
50 1 0.704239 0.812917 0.929347
51 1 0.88189 0.674392 0.624629
52 1 0.0256715 0.361324 0.15329
53 1 0.246937 0.126687 0.279232
54 1 0.477404 0.626186 0.384878
55 1 0.807015 0.507702 0.161419
56 1 0.714116 0.933918 0.339183
57 1 0.477229 0.844345 0.956684
58 1 0.638572 0.649781 0.0615285
59 1 0.361148 0.629968 0.901288
60 1 0.247312 0.141944 0.0573506
61 1 0.12859 0.897627 0.539578
62 1 0.869287 0.865464 0.494342
63 1 0.407278 0.242031 0.914166
64 1 0.00444193 0.280464 0.543967
65 1 0.98631 0.486398 0.60771
66 1 0.494669 0.312613 0.117297
67 1 0.560491 0.025674 0.885349
68 1 0.15851 0.511969 0.0994997
69 1 0.0643181 0.0244356 0.168431
70 1 0.113492 0.134814 0.44229
71 1 0.782354 0.580355 0.874928
72 1 0.517641 0.119207 0.487517
73 1 0.775512 0.0794503 0.939821
74 1 0.315278 0.865825 0.447727
75 1 0.193236 0.233771 0.869838
76 1 0.36589 0.642835 0.109205
77 1 0.128012 0.395053 0.948194
78 1 0.0723297 0.351339 0.74007
79 1 0.884451 0.840102 0.23573
80 1 0.704538 0.229721 0.551972
81 1 0.230206 0.794387 0.950874
82 1 0.975779 0.63216 0.195488
83 1 0.669345 0.411052 0.0262837
84 1 0.866978 0.919198 0.053506
85 1 0.586685 0.499266 0.5975
86 1 0.0323869 0.700823 0.998552
87 1 0.85919 0.238383 0.682039
88 1 0.754979 0.0300611 0.735548
89 1 0.187332 0.00728335 0.773061
90 1 0.289139 0.436762 0.819967
91 1 0.564103 0.366275 0.417931
92 1 0.857241 0.76425 0.806213
93 1 0.275399 0.667575 0.495187
94 1 0.67706 0.346093 0.229707
95 1 0.140469 0.993196 0.968271
96 1 0.947436 0.198148 0.854125
97 1 0.0676572 0.668872 0.527251
98 1 0.910036 0.233231 0.305596
99 1 0.152916 0.646609 0.817198
100 1 0.345234 0.275206 0.401491
101 1 0.958332 0.569209 0.798285
102 1 0.0163605 0.763655 0.361648
103 1 0.705421 0.377259 0.720482
104 1 0.359996 0.317291 0.660436
105 1 0.318685 0.0853178 0.50951
106 1 0.680741 0.786013 0.487686
107 1 0.63669 0.943227 0.100633
108 1 0.309461 0.398944 0.0289871
ITEM: TIMESTEP
250001
ITEM: NUMBER OF ATOMS
108
ITEM: BOX BOUNDS pp pp pp
4.87723 20.1228
4.87723 20.1228
4.87723 20.1228
ITEM: ATOMS id type xs ys zs
1 1 0.841803 0.0650185 0.189534
2 1 0.251963 0.732418 0.282195
3 1 0.667554 0.198846 0.0820976
4 1 0.311975 0.9166 0.156378
5 1 0.661916 0.564206 0.375795
6 1 0.974601 0.993507 0.367653
7 1 0.441695 0.8035 0.769016
8 1 0.866302 0.283664 0.0898524
9 1 0.192159 0.17881 0.664065
10 1 0.836877 0.713279 0.0535898
11 1 0.518097 0.142244 0.254196
12 1 0.510171 0.422657 0.768005
13 1 0.53886 0.184601 0.687957
14 1 0.333532 0.977549 0.924339
15 1 0.867409 0.129913 0.486256
16 1 0.305828 0.30064 0.212065
17 1 0.510714 0.698973 0.570556
18 1 0.235337 0.776662 0.674849
19 1 0.796548 0.412133 0.473005
20 1 0.684797 0.69595 0.678211
21 1 0.492079 0.476859 0.980029
22 1 0.0974758 0.828662 0.172702
23 1 0.954519 0.503088 0.032409
24 1 0.718314 0.000356882 0.546387
25 1 0.0534742 0.799893 0.709776
26 1 0.631484 0.255094 0.893364
27 1 0.386686 0.486042 0.519472
28 1 0.716705 0.132732 0.355293
29 1 0.977555 0.0486512 0.654994
30 1 0.557324 0.505683 0.217579
31 1 0.187258 0.536324 0.636388
32 1 0.838385 0.363571 0.889382
33 1 0.429189 0.0976978 0.0832675
34 1 0.119874 0.340955 0.322069
35 1 0.0334927 0.167429 0.0347575
36 1 0.503219 0.790213 0.190327
37 1 0.981033 0.910076 0.879275
38 1 0.151902 0.528814 0.388037
39 1 0.357151 0.0943667 0.733193
40 1 0.950071 0.47646 0.323274
41 1 0.180614 0.948701 0.338253
42 1 0.695065 0.747674 0.274029
43 1 0.516175 0.874584 0.374541
44 1 0.343141 0.499724 0.263326
45 1 0.376478 0.61213 0.698543
46 1 0.558474 0.630947 0.840908
47 1 0.826769 0.642456 0.420066
48 1 0.199574 0.359957 0.522581
49 1 0.486888 0.942266 0.586767
50 1 0.704239 0.812917 0.929347
51 1 0.88189 0.674392 0.624629
52 1 0.0256715 0.361324 0.15329
53 1 0.246937 0.126687 0.279232
54 1 0.477404 0.626186 0.384878
55 1 0.807015 0.507702 0.161419
56 1 0.714116 0.933918 0.339183
57 1 0.477229 0.844345 0.956684
58 1 0.638572 0.649781 0.0615285
59 1 0.361148 0.629968 0.901288
60 1 0.247312 0.141944 0.0573506
61 1 0.12859 0.897627 0.539578
62 1 0.869287 0.865464 0.494342
63 1 0.407278 0.242031 0.914166
64 1 0.00444193 0.280464 0.543967
65 1 0.98631 0.486398 0.60771
66 1 0.494669 0.312613 0.117297
67 1 0.560491 0.025674 0.885349
68 1 0.15851 0.511969 0.0994997
69 1 0.0643181 0.0244356 0.168431
70 1 0.113492 0.134814 0.44229
71 1 0.782354 0.580355 0.874928
72 1 0.517641 0.119207 0.487517
73 1 0.775512 0.0794503 0.939821
74 1 0.315278 0.865825 0.447727
75 1 0.193236 0.233771 0.869838
76 1 0.36589 0.642835 0.109205
77 1 0.128012 0.395053 0.948194
78 1 0.0723297 0.351339 0.74007
79 1 0.884451 0.840102 0.23573
80 1 0.704538 0.229721 0.551972
81 1 0.230206 0.794387 0.950874
82 1 0.975779 0.63216 0.195488
83 1 0.669345 0.411052 0.0262837
84 1 0.866978 0.919198 0.053506
85 1 0.586685 0.499266 0.5975
86 1 0.0323869 0.700823 0.998552
87 1 0.85919 0.238383 0.682039
88 1 0.754979 0.0300611 0.735548
89 1 0.187332 0.00728335 0.773061
90 1 0.289139 0.436762 0.819967
91 1 0.564103 0.366275 0.417931
92 1 0.857241 0.76425 0.806213
93 1 0.275399 0.667575 0.495187
94 1 0.67706 0.346093 0.229707
95 1 0.140469 0.993196 0.968271
96 1 0.947436 0.198148 0.854125
97 1 0.0676572 0.668872 0.527251
98 1 0.910036 0.233231 0.305596
99 1 0.152916 0.646609 0.817198
100 1 0.345234 0.275206 0.401491
101 1 0.958332 0.569209 0.798285
102 1 0.0163605 0.763655 0.361648
103 1 0.705421 0.377259 0.720482
104 1 0.359996 0.317291 0.660436
105 1 0.318685 0.0853178 0.50951
106 1 0.680741 0.786013 0.487686
107 1 0.63669 0.943227 0.100633
108 1 0.309461 0.398944 0.0289871
