ITEM: TIMESTEP
8
ITEM: NUMBER OF ATOMS
108
ITEM: BOX BOUNDS pp pp pp
0 25
0 25
0 25
ITEM: ATOMS id type xs ys zs
1 1 0.0171344 0.101628 0.799415
2 1 0.172566 0.439873 0.00124159
3 1 0.746322 0.711966 0.287932
4 1 0.7013 0.75577 0.0328018
5 1 0.607349 0.621731 0.482502
6 1 0.029849 0.746918 0.0632348
7 1 0.993993 0.626054 0.0883003
8 1 0.395758 0.770873 0.448997
9 1 0.201477 0.252062 0.150921
10 1 0.500859 0.521506 0.551394
11 1 0.0992574 0.00396748 0.104196
12 1 0.516524 0.630092 0.655005
13 1 0.150305 0.459913 0.688434
14 1 0.215298 0.485716 0.485378
15 1 0.0911639 0.31048 0.491261
16 1 0.527403 0.326334 0.396987
17 1 0.428325 0.482732 0.197567
18 1 0.380849 0.730663 0.273136
19 1 0.444938 0.272191 0.476213
20 1 0.0772419 0.00849175 0.982156
21 1 0.157343 0.640807 0.734176
22 1 0.289535 0.354972 0.509959
23 1 0.54947 0.085948 0.463644
24 1 0.0207492 0.367189 0.0603278
25 1 0.370112 0.342069 0.122076
26 1 0.70724 0.665824 0.553688
27 1 0.621177 0.172743 0.509877
28 1 0.217091 0.187644 0.390841
29 1 0.266283 0.413783 0.191742
30 1 0.631853 0.279069 0.44909
31 1 0.178368 0.0941644 0.0555552
32 1 0.0940807 0.17969 0.422846
33 1 0.288787 0.247503 0.31186
34 1 0.157248 0.000658706 0.61288
35 1 0.000248846 0.612333 0.436536
36 1 0.287193 0.217869 0.506253
37 1 0.799143 0.213384 0.0950813
38 1 0.486891 0.234379 0.145235
39 1 0.164952 0.590473 0.536893
40 1 0.348422 0.351249 0.289149
41 1 0.481715 0.78825 0.321073
42 1 0.44288 0.304675 0.231294
43 1 0.496262 0.0830196 0.23311
44 1 0.0488972 0.79144 0.624415
45 1 0.733972 0.678658 0.133932
46 1 0.012216 0.451406 0.635716
47 1 0.34509 0.278702 0.636099
48 1 0.728124 0.541343 0.302951
49 1 0.228044 0.264043 0.720773
50 1 0.501236 0.622012 0.18673
51 1 0.657815 0.389133 0.621742
52 1 0.662377 0.0683349 0.377287
53 1 0.429442 0.587891 0.425198
54 1 0.0392693 0.186935 0.656929
55 1 0.327401 0.790897 0.557429
56 1 0.04516 0.147389 0.534061
57 1 0.794227 0.263779 0.79785
58 1 0.355809 0.104922 0.477713
59 1 0.14411 0.737011 0.158726
60 1 0.416537 0.642979 0.551829
61 1 0.521006 0.0159798 0.36676
62 1 0.0667704 0.656296 0.982157
63 1 0.506814 0.445733 0.428816
64 1 0.732722 0.603843 0.444515
65 1 0.245118 0.579593 0.0270775
66 1 0.537025 0.126602 0.123477
67 1 0.216532 0.170836 0.244541
68 1 0.119245 0.563653 0.0490402
69 1 0.453774 0.0615074 0.546634
70 1 0.10328 0.274247 0.718841
71 1 0.752936 0.118116 0.700871
72 1 0.630383 0.164469 0.050681
73 1 0.654476 0.12999 0.779481
74 1 0.341323 0.0586877 0.000366369
75 1 0.180347 0.0456323 0.187461
76 1 0.236792 0.735809 0.255911
77 1 0.496202 0.360696 0.129218
78 1 0.430322 0.420792 0.687353
79 1 0.501761 0.787853 0.026841
80 1 0.679852 0.104692 0.595044
81 1 0.627179 0.484841 0.43225
82 1 0.458509 0.202745 0.702933
83 1 0.983611 0.204546 0.367881
84 1 0.520637 0.528237 0.273775
85 1 0.178981 0.763578 0.410311
86 1 0.682783 0.289171 0.161437
87 1 0.726536 0.218719 0.621017
88 1 0.0168926 0.00142204 0.409453
89 1 0.280166 0.255715 0.0540955
90 1 0.353146 0.523435 0.10722
91 1 0.324876 0.250872 0.192526
92 1 0.29828 0.719914 0.0316971
93 1 0.234247 0.0268684 0.299413
94 1 0.742104 0.999617 0.619105
95 1 0.430916 0.447391 0.319121
96 1 0.0635127 0.24524 0.223163
97 1 0.632937 0.432113 0.0755175
98 1 0.319225 0.636409 0.467124
99 1 0.301999 0.550364 0.558386
100 1 0.438401 0.664072 0.799535
101 1 0.421585 0.299703 0.798555
102 1 0.794856 0.348653 0.155439
103 1 0.99788 0.391554 0.525232
104 1 0.524308 0.224288 0.81049
105 1 0.373443 0.356705 0.414654
106 1 0.117903 0.325736 0.990715
107 1 0.536512 0.79985 0.434017
108 1 0.539131 0.440321 0.990725
ITEM: TIMESTEP
9
ITEM: NUMBER OF ATOMS
108
ITEM: BOX BOUNDS pp pp pp
0 25
0 25
0 25
ITEM: ATOMS id type xs ys zs
1 1 0.0171344 0.101628 0.799415
2 1 0.172566 0.439873 0.00124159
3 1 0.746322 0.711966 0.287932
4 1 0.7013 0.75577 0.0328018
5 1 0.607349 0.621731 0.482502
6 1 0.029849 0.746918 0.0632348
7 1 0.993993 0.626054 0.0883003
8 1 0.395758 0.770873 0.448997
9 1 0.201477 0.252062 0.150921
10 1 0.500859 0.521506 0.551394
11 1 0.0992574 0.00396748 0.104196
12 1 0.516524 0.630092 0.655005
13 1 0.150305 0.459913 0.688434
14 1 0.215298 0.485716 0.485378
15 1 0.0911639 0.31048 0.491261
16 1 0.527403 0.326334 0.396987
17 1 0.428325 0.482732 0.197567
18 1 0.380849 0.730663 0.273136
19 1 0.444938 0.272191 0.476213
20 1 0.0772419 0.00849175 0.982156
21 1 0.157343 0.640807 0.734176
22 1 0.289535 0.354972 0.509959
23 1 0.54947 0.085948 0.463644
24 1 0.0207492 0.367189 0.0603278
25 1 0.370112 0.342069 0.122076
26 1 0.70724 0.665824 0.553688
27 1 0.621177 0.172743 0.509877
28 1 0.217091 0.187644 0.390841
29 1 0.266283 0.413783 0.191742
30 1 0.631853 0.279069 0.44909
31 1 0.178368 0.0941644 0.0555552
32 1 0.0940807 0.17969 0.422846
33 1 0.288787 0.247503 0.31186
34 1 0.157248 0.000658706 0.61288
35 1 0.000248846 0.612333 0.436536
36 1 0.287193 0.217869 0.506253
37 1 0.799143 0.213384 0.0950813
38 1 0.486891 0.234379 0.145235
39 1 0.164952 0.590473 0.536893
40 1 0.348422 0.351249 0.289149
41 1 0.481715 0.78825 0.321073
42 1 0.44288 0.304675 0.231294
43 1 0.496262 0.0830196 0.23311
44 1 0.0488972 0.79144 0.624415
45 1 0.733972 0.678658 0.133932
46 1 0.012216 0.451406 0.635716
47 1 0.34509 0.278702 0.636099
48 1 0.728124 0.541343 0.302951
49 1 0.228044 0.264043 0.720773
50 1 0.501236 0.622012 0.18673
51 1 0.657815 0.389133 0.621742
52 1 0.662377 0.0683349 0.377287
53 1 0.429442 0.587891 0.425198
54 1 0.0392693 0.186935 0.656929
55 1 0.327401 0.790897 0.557429
56 1 0.04516 0.147389 0.534061
57 1 0.794227 0.263779 0.79785
58 1 0.355809 0.104922 0.477713
59 1 0.14411 0.737011 0.158726
60 1 0.416537 0.642979 0.551829
61 1 0.521006 0.0159798 0.36676
62 1 0.0667704 0.656296 0.982157
63 1 0.506814 0.445733 0.428816
64 1 0.732722 0.603843 0.444515
65 1 0.245118 0.579593 0.0270775
66 1 0.537025 0.126602 0.123477
67 1 0.216532 0.170836 0.244541
68 1 0.119245 0.563653 0.0490402
69 1 0.453774 0.0615074 0.546634
70 1 0.10328 0.274247 0.718841
71 1 0.752936 0.118116 0.700871
72 1 0.630383 0.164469 0.050681
73 1 0.654476 0.12999 0.779481
74 1 0.341323 0.0586877 0.000366369
75 1 0.180347 0.0456323 0.187461
76 1 0.236792 0.735809 0.255911
77 1 0.496202 0.360696 0.129218
78 1 0.430322 0.420792 0.687353
79 1 0.501761 0.787853 0.026841
80 1 0.679852 0.104692 0.595044
81 1 0.627179 0.484841 0.43225
82 1 0.458509 0.202745 0.702933
83 1 0.983611 0.204546 0.367881
84 1 0.520637 0.528237 0.273775
85 1 0.178981 0.763578 0.410311
86 1 0.682783 0.289171 0.161437
87 1 0.726536 0.218719 0.621017
88 1 0.0168926 0.00142204 0.409453
89 1 0.280166 0.255715 0.0540955
90 1 0.353146 0.523435 0.10722
91 1 0.324876 0.250872 0.192526
92 1 0.29828 0.719914 0.0316971
93 1 0.234247 0.0268684 0.299413
94 1 0.742104 0.999617 0.619105
95 1 0.430916 0.447391 0.319121
96 1 0.0635127 0.24524 0.223163
97 1 0.632937 0.432113 0.0755175
98 1 0.319225 0.636409 0.467124
99 1 0.301999 0.550364 0.558386
100 1 0.438401 0.664072 0.799535
101 1 0.421585 0.299703 0.798555
102 1 0.794856 0.348653 0.155439
103 1 0.99788 0.391554 0.525232
104 1 0.524308 0.224288 0.81049
105 1 0.373443 0.356705 0.414654
106 1 0.117903 0.325736 0.990715
107 1 0.536512 0.79985 0.434017
108 1 0.539131 0.440321 0.990725
